Title Card Required                                                     
FOpt      RB3LYP                                                      6-311G(d,p)         
Number of atoms                            I                9
Info1-9                                    I   N=           9
          16          16           0           0           0         110
           2          18        -502
Full Title                                 C   N=           2
Title Card Required     
Route                                      C   N=           4
#p B3LYP/6-311g(d,p) em=gd3bj int=fine opt      
Charge                                     I                0
Multiplicity                               I                1
Number of electrons                        I               44
Number of alpha electrons                  I               22
Number of beta electrons                   I               22
Number of basis functions                  I              122
Number of independent functions            I              122
Number of point charges in /Mol/           I                0
Number of translation vectors              I                0
Atomic numbers                             I   N=           9
           6           6           6           6          16           1
           1           1           1
Nuclear charges                            R   N=           9
  6.00000000E+00  6.00000000E+00  6.00000000E+00  6.00000000E+00  1.60000000E+01
  1.00000000E+00  1.00000000E+00  1.00000000E+00  1.00000000E+00
Current cartesian coordinates              R   N=          27
  7.28204640E-31  2.34432493E+00 -2.33478891E-02 -1.36732449E-30  1.34829019E+00
 -2.40257462E+00 -1.65117926E-16 -1.34829019E+00 -2.40257462E+00 -2.87097002E-16
 -2.34432493E+00 -2.33478891E-02  6.32099386E-31 -9.02539901E-33  2.26491304E+00
  1.77428758E-30  4.30511269E+00  5.32471462E-01 -4.21156182E-31  2.49262406E+00
 -4.09624075E+00 -3.05258408E-16 -2.49262406E+00 -4.09624075E+00 -5.27224247E-16
 -4.30511269E+00  5.32471462E-01
Number of symbols in /Mol/                 I                0
Force Field                                I                0
Atom Types                                 C   N=           9
                                                            
                                                
Int Atom Types                             I   N=           9
           0           0           0           0           0           0
           0           0           0
MM charges                                 R   N=           9
  0.00000000E+00  0.00000000E+00  0.00000000E+00  0.00000000E+00  0.00000000E+00
  0.00000000E+00  0.00000000E+00  0.00000000E+00  0.00000000E+00
Integer atomic weights                     I   N=           9
          12          12          12          12          32           1
           1           1           1
Real atomic weights                        R   N=           9
  1.20000000E+01  1.20000000E+01  1.20000000E+01  1.20000000E+01  3.19720718E+01
  1.00782504E+00  1.00782504E+00  1.00782504E+00  1.00782504E+00
Atom fragment info                         I   N=           9
           0           0           0           0           0           0
           0           0           0
Atom residue num                           I   N=           9
           0           0           0           0           0           0
           0           0           0
Nuclear spins                              I   N=           9
           0           0           0           0           0           1
           1           1           1
Nuclear ZEff                               R   N=           9
 -3.60000000E+00 -3.60000000E+00 -3.60000000E+00 -3.60000000E+00 -1.36000000E+01
 -1.00000000E+00 -1.00000000E+00 -1.00000000E+00 -1.00000000E+00
Nuclear ZNuc                               R   N=           9
  6.00000000E+00  6.00000000E+00  6.00000000E+00  6.00000000E+00  1.60000000E+01
  1.00000000E+00  1.00000000E+00  1.00000000E+00  1.00000000E+00
Nuclear QMom                               R   N=           9
  0.00000000E+00  0.00000000E+00  0.00000000E+00  0.00000000E+00  0.00000000E+00
  0.00000000E+00  0.00000000E+00  0.00000000E+00  0.00000000E+00
Nuclear GFac                               R   N=           9
  0.00000000E+00  0.00000000E+00  0.00000000E+00  0.00000000E+00  0.00000000E+00
  2.79284600E+00  2.79284600E+00  2.79284600E+00  2.79284600E+00
MicOpt                                     I   N=           9
          -1          -1          -1          -1          -1          -1
          -1          -1          -1
Number of residues                         I                0
Number of secondary structures             I                0
Redundant internal dimensions              I   N=           4
          38           9          13          16
Redundant internal coordinate indices      I   N=         152
           1           2           0           0           1           5
           0           0           1           6           0           0
           2           3           0           0           2           7
           0           0           3           4           0           0
           3           8           0           0           4           5
           0           0           4           9           0           0
           2           1           5           0           2           1
           6           0           5           1           6           0
           1           2           3           0           1           2
           7           0           3           2           7           0
           2           3           4           0           2           3
           8           0           4           3           8           0
           3           4           5           0           3           4
           9           0           5           4           9           0
           1           5           4           0           5           1
           2           3           5           1           2           7
           6           1           2           3           6           1
           2           7           2           1           5           4
           6           1           5           4           1           2
           3           4           1           2           3           8
           7           2           3           4           7           2
           3           8           2           3           4           5
           2           3           4           9           8           3
           4           5           8           3           4           9
           3           4           5           1           9           4
           5           1
Redundant internal coordinates             R   N=          38
  2.57930321E+00  3.27597275E+00  2.03804411E+00  2.69658037E+00  2.04401688E+00
  2.57930321E+00  2.04401688E+00  3.27597275E+00  2.03804411E+00  1.94762332E+00
  2.24348709E+00  2.09207490E+00  1.96726599E+00  2.15092352E+00  2.16499579E+00
  1.96726599E+00  2.16499579E+00  2.15092352E+00  1.94762332E+00  2.24348709E+00
  2.09207490E+00  1.59499934E+00  0.00000000E+00  3.14159265E+00  3.14159265E+00
  0.00000000E+00 -0.00000000E+00  3.14159265E+00 -0.00000000E+00  3.14159265E+00
  3.14159265E+00 -0.00000000E+00 -0.00000000E+00  3.14159265E+00  3.14159265E+00
  0.00000000E+00  0.00000000E+00  3.14159265E+00
ZRed-IntVec                                I   N=          38
           0           0           0           0           0           0
           0           0           0           0           0           0
           0           0           0           0           0           0
           0           0           0           0           0           0
           0           0           0           0           0           0
           0           0           0           0           0           0
           0           0
ZRed-FPVec                                 R   N=          38
  0.00000000E+00  0.00000000E+00  0.00000000E+00  0.00000000E+00  0.00000000E+00
  0.00000000E+00  0.00000000E+00  0.00000000E+00  0.00000000E+00  0.00000000E+00
  0.00000000E+00  0.00000000E+00  0.00000000E+00  0.00000000E+00  0.00000000E+00
  0.00000000E+00  0.00000000E+00  0.00000000E+00  0.00000000E+00  0.00000000E+00
  0.00000000E+00  0.00000000E+00  0.00000000E+00  0.00000000E+00  0.00000000E+00
  0.00000000E+00  0.00000000E+00  0.00000000E+00  0.00000000E+00  0.00000000E+00
  0.00000000E+00  0.00000000E+00  0.00000000E+00  0.00000000E+00  0.00000000E+00
  0.00000000E+00  0.00000000E+00  0.00000000E+00
ZRed-Constraint1                           R   N=          38
  2.60257989E+00  3.15992669E+00  2.05640534E+00  2.70639602E+00  2.06260341E+00
  2.60257989E+00  2.06260341E+00  3.15992669E+00  2.05640534E+00  1.94710246E+00
  2.19349842E+00  2.14258443E+00  1.94641138E+00  2.18794010E+00  2.14883383E+00
  1.94641138E+00  2.14883383E+00  2.18794010E+00  1.94710246E+00  2.19349842E+00
  2.14258443E+00  1.63775028E+00  0.00000000E+00  3.14159265E+00  3.14159265E+00
  0.00000000E+00  0.00000000E+00  3.14159265E+00  0.00000000E+00  3.14159265E+00
  3.14159265E+00  0.00000000E+00  0.00000000E+00  3.14159265E+00  3.14159265E+00
  0.00000000E+00  0.00000000E+00  3.14159265E+00
ZRed-Constraint2                           R   N=          38
  0.00000000E+00  0.00000000E+00  0.00000000E+00  0.00000000E+00  0.00000000E+00
  0.00000000E+00  0.00000000E+00  0.00000000E+00  0.00000000E+00  0.00000000E+00
  0.00000000E+00  0.00000000E+00  0.00000000E+00  0.00000000E+00  0.00000000E+00
  0.00000000E+00  0.00000000E+00  0.00000000E+00  0.00000000E+00  0.00000000E+00
  0.00000000E+00  0.00000000E+00  0.00000000E+00  0.00000000E+00  0.00000000E+00
  0.00000000E+00  0.00000000E+00  0.00000000E+00  0.00000000E+00  0.00000000E+00
  0.00000000E+00  0.00000000E+00  0.00000000E+00  0.00000000E+00  0.00000000E+00
  0.00000000E+00  0.00000000E+00  0.00000000E+00
SymInf integers                            I   N=          26
           2           4           1           1           1          -1
          -1           1          -1           1           1           1
          -1           1           0           0           0           0
           0           0           0           0           0           0
           0           0
RotTr to input orientation                 R   N=          12
  1.00000000E+00  3.93803531E-16 -1.01090152E-15  3.93803531E-16 -1.00000000E+00
  4.95983206E-16 -1.01090152E-15 -4.95983206E-16 -1.00000000E+00 -4.05155690E-16
  2.01858732E-17 -1.22073733E-02
Number of contracted shells                I               48
Number of primitive shells                 I               95
Pure/Cartesian d shells                    I                0
Pure/Cartesian f shells                    I                0
Highest angular momentum                   I                2
Largest degree of contraction              I                6
Shell types                                I   N=          48
           0          -1          -1          -1          -2           0
          -1          -1          -1          -2           0          -1
          -1          -1          -2           0          -1          -1
          -1          -2           0           0           0           0
           0           0           1           1           1           1
           1          -2           0           0           0           1
           0           0           0           1           0           0
           0           1           0           0           0           1
Number of primitives per shell             I   N=          48
           6           3           1           1           1           6
           3           1           1           1           6           3
           1           1           1           6           3           1
           1           1           6           3           1           1
           1           1           4           2           1           1
           1           1           3           1           1           1
           3           1           1           1           3           1
           1           1           3           1           1           1
Shell to atom map                          I   N=          48
           1           1           1           1           1           2
           2           2           2           2           3           3
           3           3           3           4           4           4
           4           4           5           5           5           5
           5           5           5           5           5           5
           5           5           6           6           6           6
           7           7           7           7           8           8
           8           8           9           9           9           9
Primitive exponents                        R   N=          95
  4.56324000E+03  6.82024000E+02  1.54973000E+02  4.44553000E+01  1.30290000E+01
  1.82773000E+00  2.09642000E+01  4.80331000E+00  1.45933000E+00  4.83456000E-01
  1.45585000E-01  6.26000000E-01  4.56324000E+03  6.82024000E+02  1.54973000E+02
  4.44553000E+01  1.30290000E+01  1.82773000E+00  2.09642000E+01  4.80331000E+00
  1.45933000E+00  4.83456000E-01  1.45585000E-01  6.26000000E-01  4.56324000E+03
  6.82024000E+02  1.54973000E+02  4.44553000E+01  1.30290000E+01  1.82773000E+00
  2.09642000E+01  4.80331000E+00  1.45933000E+00  4.83456000E-01  1.45585000E-01
  6.26000000E-01  4.56324000E+03  6.82024000E+02  1.54973000E+02  4.44553000E+01
  1.30290000E+01  1.82773000E+00  2.09642000E+01  4.80331000E+00  1.45933000E+00
  4.83456000E-01  1.45585000E-01  6.26000000E-01  9.34134000E+04  1.39617000E+04
  3.16991000E+03  9.02456000E+02  2.97158000E+02  1.08702000E+02  1.08702000E+02
  4.31553000E+01  1.81079000E+01  5.56009000E+00  2.13183000E+00  4.20403000E-01
  1.36045000E-01  4.95040000E+02  1.17221000E+02  3.77749000E+01  1.40584000E+01
  5.56574000E+00  2.26297000E+00  8.07994000E-01  2.77460000E-01  7.71410000E-02
  6.50000000E-01  3.38650000E+01  5.09479000E+00  1.15879000E+00  3.25840000E-01
  1.02741000E-01  7.50000000E-01  3.38650000E+01  5.09479000E+00  1.15879000E+00
  3.25840000E-01  1.02741000E-01  7.50000000E-01  3.38650000E+01  5.09479000E+00
  1.15879000E+00  3.25840000E-01  1.02741000E-01  7.50000000E-01  3.38650000E+01
  5.09479000E+00  1.15879000E+00  3.25840000E-01  1.02741000E-01  7.50000000E-01
Contraction coefficients                   R   N=          95
  1.96665025E-03  1.52306019E-02  7.61269097E-02  2.60801033E-01  6.16462078E-01
  2.21006028E-01  1.14660081E-01  9.19999648E-01 -3.03068213E-03  1.00000000E+00
  1.00000000E+00  1.00000000E+00  1.96665025E-03  1.52306019E-02  7.61269097E-02
  2.60801033E-01  6.16462078E-01  2.21006028E-01  1.14660081E-01  9.19999648E-01
 -3.03068213E-03  1.00000000E+00  1.00000000E+00  1.00000000E+00  1.96665025E-03
  1.52306019E-02  7.61269097E-02  2.60801033E-01  6.16462078E-01  2.21006028E-01
  1.14660081E-01  9.19999648E-01 -3.03068213E-03  1.00000000E+00  1.00000000E+00
  1.00000000E+00  1.96665025E-03  1.52306019E-02  7.61269097E-02  2.60801033E-01
  6.16462078E-01  2.21006028E-01  1.14660081E-01  9.19999648E-01 -3.03068213E-03
  1.00000000E+00  1.00000000E+00  1.00000000E+00  7.42999957E-04  5.79299966E-03
  2.99539983E-02  1.19027993E-01  3.68431979E-01  5.77298966E-01  1.43186060E-01
  6.24465262E-01  2.83366119E-01  1.00000000E+00  1.00000000E+00  1.00000000E+00
  1.00000000E+00  8.30900251E-03  6.40240194E-02  2.77614084E-01  7.45076225E-01
  6.13711672E-01  4.43817763E-01  1.00000000E+00  1.00000000E+00  1.00000000E+00
  1.00000000E+00  2.54938145E-02  1.90373109E-01  8.52161486E-01  1.00000000E+00
  1.00000000E+00  1.00000000E+00  2.54938145E-02  1.90373109E-01  8.52161486E-01
  1.00000000E+00  1.00000000E+00  1.00000000E+00  2.54938145E-02  1.90373109E-01
  8.52161486E-01  1.00000000E+00  1.00000000E+00  1.00000000E+00  2.54938145E-02
  1.90373109E-01  8.52161486E-01  1.00000000E+00  1.00000000E+00  1.00000000E+00
P(S=P) Contraction coefficients            R   N=          95
  0.00000000E+00  0.00000000E+00  0.00000000E+00  0.00000000E+00  0.00000000E+00
  0.00000000E+00  4.02486927E-02  2.37593957E-01  8.15853851E-01  1.00000000E+00
  1.00000000E+00  0.00000000E+00  0.00000000E+00  0.00000000E+00  0.00000000E+00
  0.00000000E+00  0.00000000E+00  0.00000000E+00  4.02486927E-02  2.37593957E-01
  8.15853851E-01  1.00000000E+00  1.00000000E+00  0.00000000E+00  0.00000000E+00
  0.00000000E+00  0.00000000E+00  0.00000000E+00  0.00000000E+00  0.00000000E+00
  4.02486927E-02  2.37593957E-01  8.15853851E-01  1.00000000E+00  1.00000000E+00
  0.00000000E+00  0.00000000E+00  0.00000000E+00  0.00000000E+00  0.00000000E+00
  0.00000000E+00  0.00000000E+00  4.02486927E-02  2.37593957E-01  8.15853851E-01
  1.00000000E+00  1.00000000E+00  0.00000000E+00  0.00000000E+00  0.00000000E+00
  0.00000000E+00  0.00000000E+00  0.00000000E+00  0.00000000E+00  0.00000000E+00
  0.00000000E+00  0.00000000E+00  0.00000000E+00  0.00000000E+00  0.00000000E+00
  0.00000000E+00  0.00000000E+00  0.00000000E+00  0.00000000E+00  0.00000000E+00
  0.00000000E+00  0.00000000E+00  0.00000000E+00  0.00000000E+00  0.00000000E+00
  0.00000000E+00  0.00000000E+00  0.00000000E+00  0.00000000E+00  0.00000000E+00
  0.00000000E+00  0.00000000E+00  0.00000000E+00  0.00000000E+00  0.00000000E+00
  0.00000000E+00  0.00000000E+00  0.00000000E+00  0.00000000E+00  0.00000000E+00
  0.00000000E+00  0.00000000E+00  0.00000000E+00  0.00000000E+00  0.00000000E+00
  0.00000000E+00  0.00000000E+00  0.00000000E+00  0.00000000E+00  0.00000000E+00
Coordinates of each shell                  R   N=         144
 -1.19189731E-31  2.34432493E+00 -2.33478891E-02 -1.19189731E-31  2.34432493E+00
 -2.33478891E-02 -1.19189731E-31  2.34432493E+00 -2.33478891E-02 -1.19189731E-31
  2.34432493E+00 -2.33478891E-02 -1.19189731E-31  2.34432493E+00 -2.33478891E-02
  5.01867429E-32  1.34829019E+00 -2.40257462E+00  5.01867429E-32  1.34829019E+00
 -2.40257462E+00  5.01867429E-32  1.34829019E+00 -2.40257462E+00  5.01867429E-32
  1.34829019E+00 -2.40257462E+00  5.01867429E-32  1.34829019E+00 -2.40257462E+00
 -1.65117926E-16 -1.34829019E+00 -2.40257462E+00 -1.65117926E-16 -1.34829019E+00
 -2.40257462E+00 -1.65117926E-16 -1.34829019E+00 -2.40257462E+00 -1.65117926E-16
 -1.34829019E+00 -2.40257462E+00 -1.65117926E-16 -1.34829019E+00 -2.40257462E+00
 -2.87097002E-16 -2.34432493E+00 -2.33478891E-02 -2.87097002E-16 -2.34432493E+00
 -2.33478891E-02 -2.87097002E-16 -2.34432493E+00 -2.33478891E-02 -2.87097002E-16
 -2.34432493E+00 -2.33478891E-02 -2.87097002E-16 -2.34432493E+00 -2.33478891E-02
 -1.98806713E-31 -4.61336289E-32  2.26491304E+00 -1.98806713E-31 -4.61336289E-32
  2.26491304E+00 -1.98806713E-31 -4.61336289E-32  2.26491304E+00 -1.98806713E-31
 -4.61336289E-32  2.26491304E+00 -1.98806713E-31 -4.61336289E-32  2.26491304E+00
 -1.98806713E-31 -4.61336289E-32  2.26491304E+00 -1.98806713E-31 -4.61336289E-32
  2.26491304E+00 -1.98806713E-31 -4.61336289E-32  2.26491304E+00 -1.98806713E-31
 -4.61336289E-32  2.26491304E+00 -1.98806713E-31 -4.61336289E-32  2.26491304E+00
 -1.98806713E-31 -4.61336289E-32  2.26491304E+00 -1.98806713E-31 -4.61336289E-32
  2.26491304E+00 -4.05123448E-31  4.30511269E+00  5.32471462E-01 -4.05123448E-31
  4.30511269E+00  5.32471462E-01 -4.05123448E-31  4.30511269E+00  5.32471462E-01
 -4.05123448E-31  4.30511269E+00  5.32471462E-01 -8.10879885E-32  2.49262406E+00
 -4.09624075E+00 -8.10879885E-32  2.49262406E+00 -4.09624075E+00 -8.10879885E-32
  2.49262406E+00 -4.09624075E+00 -8.10879885E-32  2.49262406E+00 -4.09624075E+00
 -3.05258408E-16 -2.49262406E+00 -4.09624075E+00 -3.05258408E-16 -2.49262406E+00
 -4.09624075E+00 -3.05258408E-16 -2.49262406E+00 -4.09624075E+00 -3.05258408E-16
 -2.49262406E+00 -4.09624075E+00 -5.27224247E-16 -4.30511269E+00  5.32471462E-01
 -5.27224247E-16 -4.30511269E+00  5.32471462E-01 -5.27224247E-16 -4.30511269E+00
  5.32471462E-01 -5.27224247E-16 -4.30511269E+00  5.32471462E-01
Num ILSW                                   I              100
ILSW                                       I   N=         100
           0           0           0           1           2           0
           0           0           0           0         402          -1
           4           0           0           0           2           0
           0           0           0           0           1           0
           1           0           0           0           0           0
           0           0      100000           0          -1           0
           0           0           0           0           0           0
           0           0           0           1           0           0
           0 -2000000000           1           0           0           0
           0           0         141          52           0           0
           0           0           5           0           0           0
           0           0           0           9           0           1
           0           0           0           0           0           0
           0           0           0           0           0           0
           0           0           0           0           0           0
           0           0           0           0           0           0
           0           0           0           0
Num RLSW                                   I               52
RLSW                                       R   N=          52
  8.00000000E-01  7.20000000E-01  1.00000000E+00  8.10000000E-01  2.00000000E-01
  0.00000000E+00  0.00000000E+00  1.00000000E+00  0.00000000E+00  0.00000000E+00
  0.00000000E+00  0.00000000E+00  1.00000000E+00  0.00000000E+00  0.00000000E+00
  0.00000000E+00  0.00000000E+00  1.00000000E+00  0.00000000E+00  0.00000000E+00
  0.00000000E+00  0.00000000E+00  1.00000000E+00  0.00000000E+00  0.00000000E+00
  0.00000000E+00  0.00000000E+00  1.00000000E+00  0.00000000E+00  0.00000000E+00
  0.00000000E+00  0.00000000E+00  1.00000000E+00  0.00000000E+00  0.00000000E+00
  0.00000000E+00  0.00000000E+00  0.00000000E+00  1.00000000E+00  1.00000000E+00
  0.00000000E+00  1.00000000E+00  0.00000000E+00  0.00000000E+00  0.00000000E+00
  0.00000000E+00  0.00000000E+00  0.00000000E+00  0.00000000E+00  0.00000000E+00
  0.00000000E+00  0.00000000E+00
MxBond                                     I                3
NBond                                      I   N=           9
           3           3           3           3           2           1
           1           1           1
IBond                                      I   N=          27
           2           5           6           1           3           7
           2           4           8           3           5           9
           1           4           0           1           0           0
           2           0           0           3           0           0
           4           0           0
RBond                                      R   N=          27
  1.50000000E+00  2.00000000E+00  1.00000000E+00  1.50000000E+00  1.00000000E+00
  1.00000000E+00  1.00000000E+00  1.50000000E+00  1.00000000E+00  1.50000000E+00
  2.00000000E+00  1.00000000E+00  2.00000000E+00  2.00000000E+00  0.00000000E+00
  1.00000000E+00  0.00000000E+00  0.00000000E+00  1.00000000E+00  0.00000000E+00
  0.00000000E+00  1.00000000E+00  0.00000000E+00  0.00000000E+00  1.00000000E+00
  0.00000000E+00  0.00000000E+00
Virial Ratio                               R      2.002237886214345E+00
SCF Energy                                 R     -5.530850275266189E+02
Total Energy                               R     -5.530850275266189E+02
RMS Force                                  R      8.825245439431744E-05
RMS Density                                R      5.724540866043199E-09
Job Status                                 I                1
Nuclear derivative order                   I                1
External E-field                           R   N=          35
  0.00000000E+00  0.00000000E+00  0.00000000E+00  0.00000000E+00  0.00000000E+00
  0.00000000E+00  0.00000000E+00  0.00000000E+00  0.00000000E+00  0.00000000E+00
  0.00000000E+00  0.00000000E+00  0.00000000E+00  0.00000000E+00  0.00000000E+00
  0.00000000E+00  0.00000000E+00  0.00000000E+00  0.00000000E+00  0.00000000E+00
  0.00000000E+00  0.00000000E+00  0.00000000E+00  0.00000000E+00  0.00000000E+00
  0.00000000E+00  0.00000000E+00  0.00000000E+00  0.00000000E+00  0.00000000E+00
  0.00000000E+00  0.00000000E+00  0.00000000E+00  0.00000000E+00  0.00000000E+00
IOpCl                                      I                0
IROHF                                      I                0
Alpha Orbital Energies                     R   N=         122
 -8.88770507E+01 -1.01983154E+01 -1.01983004E+01 -1.01771232E+01 -1.01766994E+01
 -7.96336438E+00 -5.92616068E+00 -5.92243727E+00 -5.91960837E+00 -8.82188397E-01
 -7.37326921E-01 -7.27720203E-01 -5.68496208E-01 -5.55999442E-01 -5.19181791E-01
 -4.18534100E-01 -3.98597427E-01 -3.90711422E-01 -3.82451370E-01 -3.47940526E-01
 -2.56344265E-01 -2.42508789E-01 -1.82214686E-02  2.11371129E-02  5.03672272E-02
  5.58229335E-02  7.61865162E-02  8.61185326E-02  9.43740148E-02  1.18473590E-01
  1.81469011E-01  1.92504566E-01  2.08069729E-01  2.80204720E-01  2.98237067E-01
  3.03487603E-01  3.66146749E-01  4.02191917E-01  4.03544758E-01  4.10036632E-01
  4.19093194E-01  4.34317296E-01  4.36460070E-01  5.07294953E-01  5.18838538E-01
  5.30894097E-01  6.01988592E-01  6.21114412E-01  6.31922884E-01  6.53896367E-01
  6.71961015E-01  7.18586232E-01  7.20089904E-01  7.30894362E-01  7.37846316E-01
  7.95947441E-01  8.07107110E-01  8.55620437E-01  9.25989244E-01  9.36535225E-01
  9.88177552E-01  9.95645815E-01  1.02239182E+00  1.07287482E+00  1.10570742E+00
  1.25333487E+00  1.32902328E+00  1.34633908E+00  1.46852727E+00  1.50654709E+00
  1.53175051E+00  1.53476832E+00  1.55325529E+00  1.58668722E+00  1.62415309E+00
  1.63007323E+00  1.68746106E+00  1.71909844E+00  1.77688582E+00  1.80143381E+00
  1.81241338E+00  1.87757694E+00  1.88392188E+00  1.89464493E+00  1.91440107E+00
  2.05080743E+00  2.08321460E+00  2.09059402E+00  2.09235545E+00  2.21396849E+00
  2.25402505E+00  2.36212756E+00  2.42015510E+00  2.43026526E+00  2.55413752E+00
  2.60664095E+00  2.62833663E+00  2.64460911E+00  2.66731141E+00  2.67031920E+00
  2.71500118E+00  2.76524389E+00  2.80243849E+00  2.93385504E+00  3.04656662E+00
  3.23927039E+00  3.25575268E+00  3.28160013E+00  3.45241606E+00  3.46950002E+00
  3.98831542E+00  4.02208303E+00  4.29782348E+00  7.79609128E+00  1.71907423E+01
  1.73552492E+01  1.74218331E+01  2.35493320E+01  2.38110647E+01  2.41336271E+01
  2.41683707E+01  1.88911253E+02
Alpha MO coefficients                      R   N=       14884
  2.46954300E-07  1.67709086E-06  0.00000000E+00 -4.88438610E-05  4.18656839E-05
  3.41826263E-05  0.00000000E+00  1.51823188E-04 -1.10187147E-04  7.96093142E-05
  0.00000000E+00  1.16254704E-04  1.36166595E-04 -1.12623873E-05  0.00000000E+00
  1.21681020E-04  1.98798780E-05  0.00000000E+00 -4.97749388E-06  1.38532400E-05
  0.00000000E+00 -1.41289900E-06  6.65579289E-06 -7.83044656E-05  0.00000000E+00
  1.27163408E-05 -6.94971974E-05  1.35869442E-04  0.00000000E+00 -9.14607812E-05
  1.63416390E-04 -7.06675286E-06  0.00000000E+00 -2.88687104E-05 -1.20286079E-05
  0.00000000E+00 -4.97749388E-06  1.38532400E-05  0.00000000E+00  1.41289900E-06
  6.65579289E-06 -7.83044656E-05  0.00000000E+00 -1.27163408E-05 -6.94971974E-05
  1.35869442E-04  0.00000000E+00  9.14607812E-05  1.63416390E-04 -7.06675286E-06
  0.00000000E+00  2.88687104E-05 -1.20286079E-05  0.00000000E+00  2.46954300E-07
  1.67709086E-06  0.00000000E+00  4.88438610E-05  4.18656839E-05  3.41826263E-05
  0.00000000E+00 -1.51823188E-04 -1.10187147E-04  7.96093142E-05  0.00000000E+00
 -1.16254704E-04  1.36166595E-04 -1.12623873E-05  0.00000000E+00 -1.21681020E-04
  1.98798780E-05  0.00000000E+00  4.10891644E-01  6.54373371E-01  1.53065743E-02
 -4.47474826E-03  1.57551822E-03 -8.24939475E-04  0.00000000E+00  0.00000000E+00
 -9.78340980E-05  0.00000000E+00  0.00000000E+00  3.46947243E-05  0.00000000E+00
  0.00000000E+00  2.45031409E-06  0.00000000E+00  0.00000000E+00 -1.51676579E-04
  0.00000000E+00  0.00000000E+00  2.16776865E-04  2.80127262E-05  0.00000000E+00
  0.00000000E+00 -2.84504045E-05  0.00000000E+00  5.67689346E-07 -1.77902938E-04
  2.51511582E-06  0.00000000E+00  6.19567072E-05  3.78142859E-06 -1.57010824E-05
  2.69569034E-05  6.61525935E-05  0.00000000E+00  6.70844469E-06 -1.30498860E-05
 -1.57010824E-05  2.69569034E-05  6.61525935E-05  0.00000000E+00 -6.70844469E-06
 -1.30498860E-05  5.67689346E-07 -1.77902938E-04  2.51511582E-06  0.00000000E+00
 -6.19567072E-05  3.78142859E-06  3.97995222E-01  3.27533642E-01  0.00000000E+00
 -2.21409789E-04  6.46897397E-04  1.35376525E-02  0.00000000E+00  5.09179321E-04
 -2.35752157E-03 -6.30356873E-03  0.00000000E+00  3.71016857E-03  2.16105673E-03
  7.38461344E-04  0.00000000E+00  1.70103138E-03 -1.05983702E-03  0.00000000E+00
  6.13990083E-03  5.24069344E-03  0.00000000E+00  4.22545935E-04  6.77065979E-04
 -2.70673236E-04  0.00000000E+00 -2.35266259E-03 -3.41269547E-03  3.24579567E-03
  0.00000000E+00  7.59776885E-05  1.95411000E-03 -1.92950060E-03  0.00000000E+00
 -1.07209361E-03 -4.11585262E-04  0.00000000E+00 -6.13990083E-03 -5.24069344E-03
  0.00000000E+00  4.22545935E-04 -6.77065979E-04  2.70673236E-04  0.00000000E+00
 -2.35266259E-03  3.41269547E-03 -3.24579567E-03  0.00000000E+00  7.59776885E-05
 -1.95411000E-03  1.92950060E-03  0.00000000E+00 -1.07209361E-03  4.11585262E-04
  0.00000000E+00 -3.97995222E-01 -3.27533642E-01  0.00000000E+00 -2.21409789E-04
 -6.46897397E-04 -1.35376525E-02  0.00000000E+00  5.09179321E-04  2.35752157E-03
  6.30356873E-03  0.00000000E+00  3.71016857E-03 -2.16105673E-03 -7.38461344E-04